ITEM: TIMESTEP
45
ITEM: NUMBER OF ATOMS
512
ITEM: BOX BOUNDS pp pp pp
0 6.3496
0 6.3496
0 12.6992
ITEM: ATOMS id type mass x y z vx vy vz
1 1 1.000 0.0787511 0.197088 12.678 2.0569 -0.635772 -0.0886334 
2 1 1.000 0.826172 0.941646 12.6665 -1.07815 0.430328 0.0748371 
3 1 1.000 0.923181 0.181178 0.647154 -0.255272 -0.130275 0.299459 
4 1 1.000 0.0493407 0.892172 0.76117 -0.790808 -0.00528911 0.30938 
5 1 1.000 1.76549 0.168348 12.6567 0.471395 -0.852711 1.09072 
6 1 1.000 2.46169 0.933275 12.6853 -0.392993 -0.173199 0.735959 
7 1 1.000 2.49423 0.0131334 0.75506 -0.948641 -0.366938 1.15213 
8 1 1.000 1.69218 0.885907 0.806853 -0.0392214 0.0495849 0.72092 
9 1 1.000 3.31411 0.0852629 0.0277515 -0.812282 0.346821 -0.147282 
10 1 1.000 3.99412 0.915403 12.6371 -0.00460273 1.3036 -0.305005 
11 1 1.000 4.10278 0.200577 0.795322 -0.139715 0.246528 1.04844 
12 1 1.000 3.23196 0.893897 0.71695 0.420492 -0.313611 -0.533373 
13 1 1.000 4.84274 0.211971 12.672 0.258677 -0.324219 -0.193253 
14 1 1.000 5.61075 0.867765 12.5491 0.963948 0.0044262 -0.447838 
15 1 1.000 5.58394 0.178974 0.723278 0.330171 0.555982 -0.743713 
16 1 1.000 4.7781 0.983416 0.730863 0.602454 0.254603 1.06717 
17 1 1.000 0.0279974 1.69525 12.6098 -0.419711 -1.98095 -0.0746712 
18 1 1.000 0.814777 2.58956 0.0053381 0.154226 -0.829731 0.758259 
19 1 1.000 0.860738 1.6175 0.786866 0.0456421 -0.0196918 0.837895 
20 1 1.000 6.3435 2.45445 0.717857 0.630565 -0.722146 0.256265 
21 1 1.000 1.73981 1.72795 12.6478 0.845129 1.2615 0.660893 
22 1 1.000 2.55621 2.46002 12.6504 0.103009 -0.450798 0.0624164 
23 1 1.000 2.46574 1.69709 0.71559 -0.567742 1.29032 -0.247796 
24 1 1.000 1.6701 2.51946 0.733002 -0.0327313 0.047109 0.396136 
25 1 1.000 3.26906 1.61469 12.5794 0.694554 0.498382 0.276502 
26 1 1.000 4.08384 2.45327 12.6921 -0.406542 -0.336183 0.0307328 
27 1 1.000 4.05198 1.69234 0.754605 0.599777 -0.137642 0.17158 
28 1 1.000 3.32038 2.4998 0.718045 -0.81956 -1.11052 -0.380704 
29 1 1.000 4.78744 1.55323 12.6061 0.170611 0.0126143 0.257928 
30 1 1.000 5.58541 2.46715 12.5942 -0.707316 -0.231365 -1.08713 
31 1 1.000 5.57619 1.61985 0.745627 -0.897718 -0.150084 1.06636 
32 1 1.000 4.934 2.38139 0.790976 -0.913489 0.762306 1.10197 
33 1 1.000 6.30111 3.2843 12.6688 0.308376 -0.446844 -0.421927 
34 1 1.000 0.828832 4.00739 12.6283 -0.131729 -0.770231 -0.095533 
35 1 1.000 0.766546 3.30688 0.788704 0.216164 0.0473209 -0.406682 
36 1 1.000 0.0834707 4.03672 0.826391 -0.145502 1.11748 -0.160489 
37 1 1.000 1.58709 3.32919 12.6315 -0.170072 0.752242 0.539913 
38 1 1.000 2.45052 4.06056 12.6291 0.339617 -0.938599 0.0892724 
39 1 1.000 2.45537 3.2998 0.692402 -0.362719 0.182104 -0.720676 
40 1 1.000 1.72775 4.00203 0.731354 0.743664 0.491938 0.602328 
41 1 1.000 3.24151 3.34415 12.6207 -0.673611 -0.218533 0.0682788 
42 1 1.000 4.04679 4.0864 12.6723 0.0889995 0.0158504 1.19507 
43 1 1.000 4.12725 3.21483 0.833386 -0.354852 0.530897 0.541174 
44 1 1.000 3.29492 4.08026 0.709149 0.224544 -0.0559321 -0.219583 
45 1 1.000 4.84835 3.3004 12.6773 0.538394 -0.240152 0.556883 
46 1 1.000 5.61086 4.05542 12.6531 0.0286133 0.397835 -0.231807 
47 1 1.000 5.5979 3.25998 0.779729 0.580859 0.534026 -0.438117 
48 1 1.000 4.88199 4.0975 0.729346 -0.121315 -0.88886 1.41356 
49 1 1.000 0.0415456 4.88583 12.5597 -1.00574 0.0605826 -0.124599 
50 1 1.000 0.842402 5.57064 12.6311 -0.0400579 0.271603 -0.74261 
51 1 1.000 0.841854 4.78139 0.729851 -0.530888 -0.778936 -1.09011 
52 1 1.000 0.173742 5.64117 0.751951 -0.52804 -0.117537 0.577919 
53 1 1.000 1.65146 4.79511 12.6745 -0.190536 -1.15481 -0.125213 
54 1 1.000 2.45932 5.66478 12.5647 -0.275895 -0.232693 -0.250376 
55 1 1.000 2.44395 4.83057 0.663176 0.348224 -0.278859 -0.668605 
56 1 1.000 1.57906 5.61043 0.719749 0.0843955 -0.800808 -0.408433 
57 1 1.000 3.21378 4.80982 12.6544 -1.43042 0.0145896 0.361511 
58 1 1.000 4.09054 5.65945 12.5518 -0.408598 -0.228288 -0.258927 
59 1 1.000 4.06919 4.85269 0.749814 1.03588 0.740041 -0.86655 
60 1 1.000 3.343 5.55749 0.802398 -0.0422638 0.548765 0.0334365 
61 1 1.000 4.86188 4.86166 12.6703 -1.64275 -0.71298 0.14252 
62 1 1.000 5.58706 5.64125 12.6649 0.792663 -0.162696 0.690801 
63 1 1.000 5.64258 4.83879 0.713152 0.664567 -0.147534 0.27438 
64 1 1.000 4.83711 5.70718 0.610776 -0.141829 1.66237 -0.639405 
65 1 1.000 0.11535 0.0932743 1.53254 0.74324 0.237098 0.177369 
66 1 1.000 0.91703 0.900493 1.52963 0.147054 -0.455778 -0.541879 
67 1 1.000 0.912239 0.0762065 2.32575 -0.237565 -0.234369 -0.575473 
68 1 1.000 0.0931287 0.804907 2.3116 -0.396695 -0.396025 0.457642 
69 1 1.000 1.66335 0.081648 1.46777 0.652303 0.120813 1.43443 
70 1 1.000 2.45839 0.894279 1.48478 0.440246 -0.964566 0.524011 
71 1 1.000 2.40963 6.313 2.23311 -0.287128 -1.10677 0.0359702 
72 1 1.000 1.67526 0.936276 2.35424 -0.479881 0.530254 1.46145 
73 1 1.000 3.27245 0.000983931 1.5399 0.0807051 -0.240971 -0.284575 
74 1 1.000 4.1172 0.899828 1.5774 -0.332444 0.0997084 0.260056 
75 1 1.000 3.99867 0.0273586 2.38129 0.455059 0.252895 -0.0673233 
76 1 1.000 3.23247 0.883923 2.23787 -0.77737 0.278404 0.0941503 
77 1 1.000 4.82628 0.138194 1.63693 -0.689033 -0.168588 2.50434 
78 1 1.000 5.5932 0.885628 1.55324 -0.519656 0.287715 1.13668 
79 1 1.000 5.69331 0.127012 2.2766 -0.106548 0.287957 -0.0223273 
80 1 1.000 4.74609 0.840076 2.31184 0.765866 -0.200185 0.444325 
81 1 1.000 0.0642787 1.58636 1.52785 0.42889 0.128793 -0.719449 
82 1 1.000 0.844419 2.47498 1.47271 0.0585776 -0.203584 -0.535861 
83 1 1.000 0.919712 1.74889 2.31343 0.0533988 0.632439 -0.592754 
84 1 1.000 0.116123 2.45174 2.301 -0.217365 -1.19078 1.28765 
85 1 1.000 1.63368 1.74372 1.55561 0.516742 -0.601322 -0.19873 
86 1 1.000 2.55915 2.52907 1.55086 -0.21037 0.360533 0.280036 
87 1 1.000 2.37739 1.63417 2.31486 0.563612 -1.25303 -0.190132 
88 1 1.000 1.70595 2.50025 2.30222 0.787332 0.290687 0.185826 
89 1 1.000 3.28397 1.70899 1.56589 -0.204242 0.361307 0.112116 
90 1 1.000 4.10721 2.42183 1.59823 -0.0906814 -0.387098 1.17253 
91 1 1.000 4.08851 1.67325 2.28499 -0.307727 0.851831 0.532811 
92 1 1.000 3.26957 2.48444 2.30279 -0.838412 0.275921 0.530602 
93 1 1.000 4.88464 1.73152 1.60358 0.0917593 -0.345964 0.581169 
94 1 1.000 5.68754 2.47303 1.58156 -0.740742 -0.0138969 0.217091 
95 1 1.000 5.66678 1.58468 2.31424 -0.857607 0.365982 -0.600159 
96 1 1.000 4.85413 2.51348 2.36365 0.683723 0.587849 -1.56513 
97 1 1.000 0.07038 3.22133 1.59547 -0.836178 -0.678493 0.345221 
98 1 1.000 0.985676 4.10349 1.56014 -0.791949 -0.491453 0.934917 
99 1 1.000 0.888934 3.26851 2.35046 0.0841186 0.0871375 0.426584 
100 1 1.000 0.099934 3.98956 2.32578 0.410591 0.385411 -0.0858417 
101 1 1.000 1.72101 3.24266 1.48581 1.40749 -0.63159 0.0402813 
102 1 1.000 2.49506 4.08937 1.5613 -0.0492528 0.760982 -0.249213 
103 1 1.000 2.55873 3.31078 2.34418 -0.397811 0.583193 0.675231 
104 1 1.000 1.75473 4.04186 2.32382 -1.11308 0.422489 0.73581 
105 1 1.000 3.31572 3.2338 1.51247 0.0357593 0.227634 0.23551 
106 1 1.000 4.08621 4.10675 1.55613 -0.0793286 -1.09088 -0.560698 
107 1 1.000 4.09656 3.21063 2.30375 0.00928315 0.0406487 1.36637 
108 1 1.000 3.29165 4.04756 2.28109 0.261807 -1.06936 -1.46633 
109 1 1.000 4.8915 3.26852 1.57313 0.225553 -0.0315047 -1.02232 
110 1 1.000 5.66853 4.05316 1.48204 1.05589 -0.156718 0.330576 
111 1 1.000 5.62764 3.25437 2.35317 -0.225698 0.453059 -0.00289644 
112 1 1.000 4.85788 4.03942 2.32139 -0.0284393 -0.424672 -2.07777 
113 1 1.000 0.0367684 4.93721 1.54227 -0.870226 -1.0026 0.549945 
114 1 1.000 0.88728 5.65172 1.55893 -0.52161 1.29627 -0.657932 
115 1 1.000 0.828517 4.77019 2.35561 0.0367039 0.204713 -0.407077 
116 1 1.000 0.0100644 5.63791 2.30761 0.722836 -0.997326 0.0229692 
117 1 1.000 1.64062 4.87625 1.53345 0.90133 0.841372 -1.09404 
118 1 1.000 2.48951 5.62923 1.39665 -0.260316 0.975289 -0.774895 
119 1 1.000 2.44182 4.91325 2.27224 -0.703299 -0.210486 -0.248791 
120 1 1.000 1.57694 5.6096 2.32597 -0.170726 -0.129682 0.0910213 
121 1 1.000 3.28692 4.84772 1.55982 0.774125 0.200642 -1.40417 
122 1 1.000 4.08359 5.59633 1.58862 1.23536 -0.0780111 -0.360431 
123 1 1.000 4.07934 4.90062 2.35683 0.982554 -0.537015 0.373686 
124 1 1.000 3.2935 5.61678 2.32529 -0.0089106 0.668505 -1.7282 
125 1 1.000 4.9167 4.91741 1.52645 -0.491597 -0.964228 -0.129995 
126 1 1.000 5.60764 5.6851 1.42041 -1.08609 0.205669 -0.399258 
127 1 1.000 5.62145 4.74449 2.35657 -0.632249 -1.24868 0.93276 
128 1 1.000 4.93048 5.6219 2.37813 0.254938 0.602937 0.0337848 
129 1 1.000 6.34214 6.34874 3.06413 -0.344774 -0.762677 0.843522 
130 1 1.000 0.876892 0.798859 3.07381 -0.536133 0.664548 0.402924 
131 1 1.000 0.826549 0.079582 3.85545 0.0702707 0.747653 -0.148925 
132 1 1.000 0.156511 0.932171 3.89878 0.108829 0.986122 0.670162 
133 1 1.000 1.65011 0.104725 3.1079 1.10028 -0.506385 -0.349029 
134 1 1.000 2.37427 0.85532 3.07492 1.44743 0.522773 -0.680229 
135 1 1.000 2.45494 0.0468621 3.86731 -0.204468 1.42124 0.440387 
136 1 1.000 1.72965 0.774005 3.86488 -0.0491748 -0.715805 -0.403403 
137 1 1.000 3.16734 0.159907 3.06227 0.195904 0.368628 -0.783843 
138 1 1.000 4.03519 0.894274 3.07627 -1.00338 -0.367568 0.0255655 
139 1 1.000 4.06974 0.166143 3.90471 -0.341385 0.794118 -0.594583 
140 1 1.000 3.2163 0.838748 3.89361 -0.752279 -1.07004 0.0289259 
141 1 1.000 4.87032 0.0765218 3.1119 0.884087 0.0716283 -0.800435 
142 1 1.000 5.70509 0.82684 3.21589 -0.174185 0.486145 0.122296 
143 1 1.000 5.56584 0.163906 3.98681 1.10777 0.73779 0.0456712 
144 1 1.000 4.84603 0.949609 3.93584 -1.33842 -0.918642 0.621197 
145 1 1.000 0.118821 1.71312 3.11387 0.144922 -1.04446 0.504501 
146 1 1.000 0.888033 2.46038 3.09861 0.280723 -0.155222 -0.280792 
147 1 1.000 0.898056 1.74098 3.88538 -0.0268456 -0.715314 -0.866072 
148 1 1.000 0.0374889 2.45247 3.92134 0.455245 0.213051 -0.317963 
149 1 1.000 1.62599 1.64546 3.17637 0.83535 -0.278446 1.08124 
150 1 1.000 2.46271 2.52312 3.12129 0.729834 -0.3125 0.320473 
151 1 1.000 2.45477 1.66174 3.81186 -0.0474638 -0.587329 0.795275 
152 1 1.000 1.71917 2.40298 3.84671 0.408833 0.575458 0.987222 
153 1 1.000 3.25747 1.65133 3.09343 -0.659803 0.360008 -1.23407 
154 1 1.000 4.02106 2.51113 3.10553 0.994654 -0.72785 -0.31841 
155 1 1.000 4.04533 1.66002 3.8134 0.269713 -0.0474374 -1.34653 
156 1 1.000 3.2509 2.37805 3.90458 -0.613183 0.253507 -0.227285 
157 1 1.000 4.89351 1.64244 3.06536 -0.0703705 -0.486104 0.403828 
158 1 1.000 5.66583 2.39335 3.04298 0.0741318 -0.484924 -0.567938 
159 1 1.000 5.62849 1.68641 3.93216 -0.197717 -0.111651 0.0273731 
160 1 1.000 4.86436 2.47473 3.81671 0.822958 -0.105925 -1.21942 
161 1 1.000 0.0408818 3.24884 3.17133 -0.711264 -0.181042 -0.285604 
162 1 1.000 0.883624 4.05363 3.10258 -1.08953 0.747257 0.45419 
163 1 1.000 0.937904 3.21314 3.87445 -0.354882 -0.612279 0.136891 
164 1 1.000 0.145949 4.02831 3.9389 -1.52623 0.253499 0.460514 
165 1 1.000 1.67713 3.29093 3.10747 0.626052 0.0238626 0.108467 
166 1 1.000 2.49058 4.09607 3.15917 0.666846 0.803328 -0.714079 
167 1 1.000 2.47982 3.28949 3.85686 -0.227209 -0.0987232 -1.12683 
168 1 1.000 1.61512 4.16919 3.93253 -0.911653 -0.847735 -0.443427 
169 1 1.000 3.33842 3.32971 3.13135 -0.0938063 -0.273 0.307561 
170 1 1.000 4.09795 4.09049 3.0806 -0.0853244 -0.552605 0.559156 
171 1 1.000 4.01457 3.32091 3.85385 -0.14378 0.0172886 -0.0236745 
172 1 1.000 3.17603 4.12435 3.90684 0.228787 0.0177613 0.941382 
173 1 1.000 4.76939 3.30453 3.11219 -0.490454 1.73983 -0.0851264 
174 1 1.000 5.64834 4.00678 3.14487 0.660937 0.23547 1.08422 
175 1 1.000 5.6015 3.22414 3.93148 0.320744 0.335267 -0.0268738 
176 1 1.000 4.81393 4.05692 3.95911 -0.075798 -0.674163 0.347612 
177 1 1.000 0.0962831 4.79812 3.15531 -0.00363993 -0.00798526 0.340018 
178 1 1.000 0.943564 5.60746 3.1339 -0.287018 0.847449 -0.856412 
179 1 1.000 0.828135 4.85241 3.8371 -0.238041 0.250429 -0.470507 
180 1 1.000 0.0778401 5.64456 3.89268 -0.633505 0.306101 1.42652 
181 1 1.000 1.71525 4.82227 3.09353 -0.29312 -0.588765 0.66171 
182 1 1.000 2.42766 5.6398 3.09311 -0.717199 -0.967902 -0.233078 
183 1 1.000 2.44745 4.89537 3.8748 0.0325334 0.304882 0.0718723 
184 1 1.000 1.68174 5.65306 3.92282 -0.166361 -0.422104 -1.56918 
185 1 1.000 3.20774 4.8945 3.12006 0.745818 1.69224 0.760739 
186 1 1.000 4.05713 5.65484 3.17349 0.625595 -0.040295 0.0117837 
187 1 1.000 3.98839 4.8889 3.87317 0.902675 -0.374802 -1.15812 
188 1 1.000 3.21574 5.67027 3.86535 -0.319746 0.656299 0.255591 
189 1 1.000 4.83081 4.84467 3.11319 -1.02941 -0.983953 0.550025 
190 1 1.000 5.63762 5.62079 3.15231 -0.832554 -0.212261 -0.184403 
191 1 1.000 5.58126 4.92086 3.93494 -1.0421 0.100539 -0.42015 
192 1 1.000 4.83341 5.61013 3.88022 0.415694 -0.88898 -0.201417 
193 1 1.000 0.111861 0.0346147 4.67752 -1.22806 -0.0582126 -0.600909 
194 1 1.000 0.821087 0.911559 4.69597 0.247485 -0.475345 1.34508 
195 1 1.000 0.865854 0.072519 5.41866 0.226031 -0.891308 1.26402 
196 1 1.000 0.0720747 0.828957 5.54523 -0.128609 0.484124 -0.633055 
197 1 1.000 1.60439 0.0397748 4.63099 -0.482443 -0.0213158 -0.175692 
198 1 1.000 2.40121 0.865967 4.69666 -0.915203 0.72536 -1.16842 
199 1 1.000 2.46721 0.0763073 5.46998 -0.174389 1.15547 0.593719 
200 1 1.000 1.64851 0.860133 5.45013 -0.0455798 -0.613346 -0.0105716 
201 1 1.000 3.21821 0.193574 4.64504 0.00693014 1.26076 1.14002 
202 1 1.000 4.02095 0.961346 4.59911 -0.411403 0.499993 -0.220865 
203 1 1.000 4.01406 0.184197 5.41907 1.15232 0.766293 0.851078 
204 1 1.000 3.22946 0.906784 5.43154 0.6005 0.332647 0.0438296 
205 1 1.000 4.77859 0.203795 4.70119 0.549206 0.187684 -0.468879 
206 1 1.000 5.77093 0.93176 4.70371 -0.377024 0.272149 0.513288 
207 1 1.000 5.62588 0.133217 5.56679 0.0358768 -0.630842 -0.0272587 
208 1 1.000 4.83715 0.904039 5.48671 -0.0513041 -0.246947 -0.0917528 
209 1 1.000 0.11068 1.75046 4.63436 -0.220184 -0.564612 0.774153 
210 1 1.000 0.913918 2.46837 4.65792 -0.241404 0.010351 0.103051 
211 1 1.000 0.770219 1.60675 5.52745 0.377584 0.0621994 -0.181974 
212 1 1.000 0.0834766 2.48292 5.49887 1.15851 -0.288446 1.12748 
213 1 1.000 1.6037 1.62776 4.61601 -0.0920298 0.895417 -0.43248 
214 1 1.000 2.39943 2.44209 4.64867 0.510128 0.230978 0.13174 
215 1 1.000 2.48393 1.67454 5.39869 0.0373741 -1.2928 -0.329998 
216 1 1.000 1.64922 2.42211 5.45246 -0.559253 -0.650111 1.20903 
217 1 1.000 3.1893 1.55249 4.60176 0.645425 -0.365048 -0.706987 
218 1 1.000 4.05217 2.4332 4.63252 -0.241699 0.960862 -0.117172 
219 1 1.000 3.98259 1.61923 5.51872 -0.120138 -0.465606 0.304691 
220 1 1.000 3.21484 2.42269 5.35845 0.832691 1.06525 0.0603613 
221 1 1.000 4.88631 1.71172 4.7047 0.233195 -0.537025 -0.873422 
222 1 1.000 5.61445 2.55672 4.78524 0.171355 -0.336733 0.125499 
223 1 1.000 5.72846 1.66581 5.4531 -0.306447 -0.915133 0.35873 
224 1 1.000 4.76311 2.51149 5.44175 0.145256 0.402874 0.410349 
225 1 1.000 0.17999 3.24799 4.64851 -0.453443 -0.939893 0.372089 
226 1 1.000 0.903388 4.04439 4.7275 0.487791 -0.411857 0.122422 
227 1 1.000 0.949493 3.2516 5.5322 -0.126216 -0.216653 -0.624109 
228 1 1.000 0.0298328 4.15538 5.46397 -0.0318443 -0.34383 1.29285 
229 1 1.000 1.65533 3.31821 4.66092 -0.164744 -1.30969 0.558174 
230 1 1.000 2.43546 4.16627 4.67581 0.800373 0.30236 0.20649 
231 1 1.000 2.5149 3.25219 5.51325 -0.332672 0.429248 -0.403517 
232 1 1.000 1.69094 4.04175 5.52559 -1.76234 0.260227 -0.224035 
233 1 1.000 3.0965 3.30526 4.66313 -0.706489 -0.24093 -0.609196 
234 1 1.000 4.00142 4.0128 4.69472 1.32939 1.20727 -0.122445 
235 1 1.000 3.95574 3.25667 5.44144 -0.46346 -0.440436 -0.0175882 
236 1 1.000 3.2067 4.057 5.55437 0.000916365 0.0417995 0.614726 
237 1 1.000 4.79327 3.19315 4.69576 0.0882407 0.745251 -0.263153 
238 1 1.000 5.64313 4.08643 4.71283 0.83482 0.211158 -0.553681 
239 1 1.000 5.54063 3.30792 5.46912 -0.348675 -0.90864 0.190322 
240 1 1.000 4.75722 4.00519 5.37333 0.612664 1.19728 -0.422467 
241 1 1.000 0.071726 4.85686 4.64697 0.321699 -0.0866612 0.73482 
242 1 1.000 0.796382 5.5688 4.71896 0.499991 -0.406947 0.269875 
243 1 1.000 0.870252 4.81606 5.54002 0.478739 0.587367 0.0494521 
244 1 1.000 0.136797 5.6401 5.54284 -0.0320619 -0.449244 0.122907 
245 1 1.000 1.58448 4.87692 4.66701 0.520847 -0.812934 0.335657 
246 1 1.000 2.50007 5.61621 4.70279 -0.176358 0.828143 -0.0120467 
247 1 1.000 2.42804 4.88803 5.5293 -0.563655 0.152391 -0.810668 
248 1 1.000 1.70246 5.69124 5.41857 -0.384249 -0.104444 -0.878859 
249 1 1.000 3.32983 4.87252 4.74004 -0.575472 -0.520892 -0.161333 
250 1 1.000 4.00085 5.68248 4.60926 0.845966 0.262752 -0.56464 
251 1 1.000 4.00955 4.80552 5.55952 0.869989 -0.51994 -0.0159818 
252 1 1.000 3.34408 5.67047 5.50821 1.04842 -0.483504 -1.11719 
253 1 1.000 4.71256 4.85204 4.75088 -0.660215 -0.668377 0.748287 
254 1 1.000 5.57916 5.70335 4.74535 0.69182 0.857699 0.0207013 
255 1 1.000 5.588 4.91071 5.49559 0.463403 0.379725 0.609328 
256 1 1.000 4.74289 5.71844 5.45066 1.77625 -0.94526 -1.02446 
257 1 1.000 0.149674 0.0282853 6.28424 0.100836 -0.145582 0.417608 
258 1 1.000 0.886929 0.86851 6.26755 -0.0114918 -0.425427 -0.0785372 
259 1 1.000 0.949932 0.165252 7.06467 0.114693 0.141347 -0.662199 
260 1 1.000 0.0747925 0.874292 7.1057 -0.489486 0.47916 -0.958678 
261 1 1.000 1.61631 0.135391 6.20756 -0.414516 0.432817 -0.631089 
262 1 1.000 2.44037 0.839654 6.20255 0.397449 -0.00611666 0.725413 
263 1 1.000 2.47327 0.104345 7.11936 -0.266342 -0.416263 0.383887 
264 1 1.000 1.69513 0.93971 7.04976 0.442538 -0.908571 -1.37291 
265 1 1.000 3.24418 0.149508 6.23585 -0.353353 -0.380001 0.360598 
266 1 1.000 3.99416 0.824134 6.24413 -1.05823 -0.784771 -0.686167 
267 1 1.000 4.07989 0.144556 7.08438 1.0409 0.129881 -0.670242 
268 1 1.000 3.30062 0.872085 7.01115 -0.0867878 0.977968 -0.30562 
269 1 1.000 4.81571 0.16583 6.25479 0.784638 -0.666226 -0.163671 
270 1 1.000 5.64674 0.904352 6.33617 1.32008 -0.0679328 0.775887 
271 1 1.000 5.60463 0.0894474 7.03917 0.120334 -0.387746 -0.679882 
272 1 1.000 4.83566 0.940816 7.06935 0.722041 -0.213969 0.397524 
273 1 1.000 0.0920081 1.66276 6.34065 -0.280228 0.461107 0.358474 
274 1 1.000 0.920957 2.43301 6.28101 0.391746 -0.231216 -0.28198 
275 1 1.000 0.893354 1.61607 7.13867 -0.0321727 -1.07255 -0.554332 
276 1 1.000 0.148919 2.5421 7.03579 -0.0348736 0.315876 -0.408901 
277 1 1.000 1.66202 1.60901 6.22857 0.55418 0.00954159 1.09202 
278 1 1.000 2.51138 2.40982 6.20283 0.0127154 -0.445981 0.319 
279 1 1.000 2.58133 1.709 7.12859 -0.470145 0.00831762 -0.0969709 
280 1 1.000 1.72306 2.35525 6.97177 0.408541 0.53424 -0.155732 
281 1 1.000 3.20083 1.62758 6.25927 0.397388 0.221464 0.776805 
282 1 1.000 4.02522 2.37598 6.28233 0.178578 0.630499 0.249492 
283 1 1.000 4.08486 1.6437 6.96501 -0.995728 0.181504 -0.707055 
284 1 1.000 3.30924 2.55056 7.12966 1.43103 -0.726251 -0.833231 
285 1 1.000 4.86952 1.6958 6.2074 -0.719663 -0.360145 -0.30978 
286 1 1.000 5.62073 2.46814 6.28249 0.756398 -0.362712 0.678004 
287 1 1.000 5.64136 1.67359 7.04612 -1.05291 0.197019 -0.701975 
288 1 1.000 4.85351 2.43945 7.05006 -0.206258 -0.595881 0.556777 
289 1 1.000 0.0135194 3.20232 6.1806 -0.569811 0.470759 0.14025 
290 1 1.000 0.879734 4.0414 6.29523 1.0036 0.508991 -0.75404 
291 1 1.000 0.934514 3.28692 7.13315 -1.37817 -0.611754 -0.14341 
292 1 1.000 0.0392445 3.98819 7.10293 0.336651 -0.18788 0.0781928 
293 1 1.000 1.72113 3.18395 6.25424 0.504272 1.5211 -0.433403 
294 1 1.000 2.42599 4.02228 6.31784 -0.410565 0.0732362 -0.104134 
295 1 1.000 2.35797 3.23398 7.11478 -0.339364 -0.34129 0.0938758 
296 1 1.000 1.69174 4.09681 7.05326 -0.699037 -0.185742 1.40116 
297 1 1.000 3.23568 3.17681 6.29199 -0.088582 -0.906659 0.116953 
298 1 1.000 4.12337 4.03873 6.32036 -0.887568 0.0615807 0.0340098 
299 1 1.000 4.18495 3.31143 7.07723 0.0390571 -0.576428 -1.70551 
300 1 1.000 3.19854 4.05723 7.01935 -0.397527 0.880434 0.85086 
301 1 1.000 4.81949 3.21741 6.23671 0.726686 -0.275924 -0.205524 
302 1 1.000 5.66385 4.18166 6.25198 0.0556475 -0.210525 -0.133194 
303 1 1.000 5.56896 3.26218 7.12485 0.524321 -0.342698 -0.176014 
304 1 1.000 4.92128 4.11167 7.13476 1.14598 0.158492 0.0560211 
305 1 1.000 0.175503 4.94288 6.35383 0.220318 0.355127 0.151118 
306 1 1.000 0.981239 5.65732 6.31752 0.576427 -0.372536 -1.18745 
307 1 1.000 0.904378 4.81374 7.16603 0.141032 -0.686957 0.926265 
308 1 1.000 0.176248 5.60568 7.15592 -0.382816 0.693271 0.0665231 
309 1 1.000 1.63078 4.82555 6.30628 -0.0486529 -0.775137 0.214855 
310 1 1.000 2.37958 5.69385 6.23776 -1.49144 0.926124 0.255549 
311 1 1.000 2.4869 4.93451 6.94593 0.0998344 -0.867074 -0.0348757 
312 1 1.000 1.5784 5.65629 7.15297 0.35764 0.645722 0.267198 
313 1 1.000 3.2757 4.88057 6.24885 -0.447044 0.034939 -0.354524 
314 1 1.000 4.03117 5.69168 6.33721 -0.848799 0.356371 0.783195 
315 1 1.000 3.97687 4.90745 7.03591 0.23244 0.468773 0.0276999 
316 1 1.000 3.2339 5.65936 7.05164 0.321916 -1.63288 -0.394954 
317 1 1.000 4.82232 4.92596 6.23178 0.182896 0.785511 0.484278 
318 1 1.000 5.66329 5.67692 6.22352 -0.0912318 0.401783 0.11278 
319 1 1.000 5.67275 4.8513 7.03959 0.187717 -0.774004 -0.416524 
320 1 1.000 4.85794 5.6739 7.01751 -0.469633 -0.755573 0.27652 
321 1 1.000 0.113361 0.10052 7.79 -0.252376 -0.212701 0.32144 
322 1 1.000 0.856196 0.856674 7.93094 -0.857128 0.801636 -0.540584 
323 1 1.000 0.895178 0.189384 8.78506 -0.943062 0.51445 -0.319217 
324 1 1.000 0.126399 0.871441 8.75199 -1.11303 0.244125 0.743336 
325 1 1.000 1.68017 0.13469 7.89391 0.58034 -0.662503 -1.60409 
326 1 1.000 2.53574 1.00388 7.84263 0.781386 -0.487381 1.39158 
327 1 1.000 2.47465 0.100371 8.64091 0.237901 -0.996476 -0.529287 
328 1 1.000 1.71882 0.880542 8.66441 -1.00972 -0.103766 0.572905 
329 1 1.000 3.25231 0.0469261 7.87313 0.147985 -0.916757 -0.0191806 
330 1 1.000 3.98873 0.830175 7.87761 -0.605694 0.0928602 1.1083 
331 1 1.000 4.08187 0.0740731 8.68065 0.841776 0.00631959 -0.241939 
332 1 1.000 3.28635 0.889706 8.63893 1.21637 0.265888 0.0449935 
333 1 1.000 4.90168 0.127556 7.94796 0.464574 -0.0462967 -0.440373 
334 1 1.000 5.62219 0.984334 7.838 -0.75069 -0.0452461 -0.733191 
335 1 1.000 5.63836 0.217645 8.79455 0.239843 -0.677119 0.474744 
336 1 1.000 4.82881 0.905894 8.64272 0.570002 0.701012 1.25956 
337 1 1.000 0.0277808 1.71631 7.76847 -0.0501156 -0.799829 0.445488 
338 1 1.000 0.957862 2.40269 7.83163 -0.648433 0.148849 -0.675344 
339 1 1.000 0.881745 1.70444 8.68458 0.831258 -0.906081 0.158561 
340 1 1.000 0.0954474 2.47107 8.60332 0.846038 0.260515 0.652349 
341 1 1.000 1.73898 1.68717 7.9531 -0.375126 0.545541 0.318876 
342 1 1.000 2.46667 2.44155 7.85273 -0.451886 2.19999 0.310851 
343 1 1.000 2.59227 1.70927 8.687 -0.302607 -0.232975 -0.140443 
344 1 1.000 1.65729 2.45602 8.737 0.922563 0.251865 -0.968797 
345 1 1.000 3.42063 1.66895 7.79785 -1.09674 -0.0214845 -1.38405 
346 1 1.000 4.12474 2.54109 7.96835 -0.345718 -0.582071 -0.261296 
347 1 1.000 4.06904 1.65568 8.66926 0.759427 1.27213 0.0226538 
348 1 1.000 3.3461 2.45812 8.66064 -0.792326 -0.384295 0.0145019 
349 1 1.000 4.7603 1.64561 7.89523 -0.234014 0.165506 -0.0485293 
350 1 1.000 5.57962 2.37533 7.79852 0.170229 -0.462865 1.14128 
351 1 1.000 5.65598 1.67938 8.59501 0.241848 -0.441249 -0.06257 
352 1 1.000 4.85409 2.38815 8.70687 -0.119972 -0.0684226 -0.291007 
353 1 1.000 0.0552196 3.27911 7.90026 -0.727279 0.977754 -1.3092 
354 1 1.000 0.952442 4.0183 8.00397 -1.77144 -0.966749 -0.213037 
355 1 1.000 0.89332 3.25603 8.65018 -0.0688635 0.189399 0.249315 
356 1 1.000 0.0630696 4.12367 8.73332 -0.476914 0.824239 -0.842218 
357 1 1.000 1.71659 3.21987 7.87932 -0.541143 -0.24539 0.0574972 
358 1 1.000 2.41247 4.07718 7.90308 -0.326765 0.768056 0.265314 
359 1 1.000 2.43314 3.19423 8.59644 0.803734 -1.10798 -0.726344 
360 1 1.000 1.77858 4.03151 8.75012 0.215892 -0.0637845 -0.824106 
361 1 1.000 3.16003 3.28451 7.86574 0.779381 0.343595 0.4624 
362 1 1.000 4.07298 4.05266 7.81144 -0.333863 -0.450094 -0.612899 
363 1 1.000 4.02443 3.32223 8.6967 0.667476 0.392449 0.451992 
364 1 1.000 3.26372 4.03364 8.646 -0.256315 0.595163 0.154415 
365 1 1.000 4.91943 3.21049 8.00805 0.694932 -0.0650729 1.00557 
366 1 1.000 5.71202 4.1079 7.9763 0.541338 -0.611942 0.419016 
367 1 1.000 5.73506 3.21385 8.75443 0.0584654 0.0475566 -0.214024 
368 1 1.000 4.88478 4.10137 8.67346 0.233644 -0.207259 1.35651 
369 1 1.000 0.124643 4.74928 7.84128 -0.242985 0.091598 -0.290159 
370 1 1.000 0.906799 5.66115 7.92198 -0.0864775 0.257833 0.440954 
371 1 1.000 0.939523 4.84896 8.72378 0.549479 -0.510105 -0.239561 
372 1 1.000 0.117029 5.76835 8.67882 0.305296 0.43882 0.192942 
373 1 1.000 1.68276 4.85938 7.90767 -0.54777 0.376772 -0.543929 
374 1 1.000 2.49146 5.67291 7.84202 0.693795 0.0287873 0.370395 
375 1 1.000 2.50479 4.80238 8.62839 -2.11151 -0.373432 -1.05619 
376 1 1.000 1.77011 5.55877 8.74817 0.118608 -0.22638 -0.698778 
377 1 1.000 3.21943 4.87417 7.80207 -0.236221 -0.0180908 -0.785878 
378 1 1.000 4.09089 5.61999 7.82362 -0.540184 -1.60241 -0.0980929 
379 1 1.000 4.06869 4.85131 8.59788 -0.644984 -0.419172 0.123676 
380 1 1.000 3.26987 5.62208 8.64486 -0.899822 -0.133681 2.02337 
381 1 1.000 4.81088 4.77869 7.89116 -0.579724 0.627695 -0.477517 
382 1 1.000 5.60903 5.65144 7.88574 -1.03924 0.598331 -1.29658 
383 1 1.000 5.65747 4.8965 8.65717 1.27801 -0.466528 -0.16134 
384 1 1.000 4.88738 5.63264 8.79868 -0.751648 0.112097 -1.02142 
385 1 1.000 0.114871 0.154257 9.54203 0.0624886 -0.537303 0.425313 
386 1 1.000 0.918387 0.874853 9.57794 1.39579 0.257337 -0.498286 
387 1 1.000 0.967902 0.0717408 10.2933 0.426502 -0.491366 0.108316 
388 1 1.000 0.168955 0.913798 10.2955 1.22728 -1.11985 0.0620033 
389 1 1.000 1.68424 0.0690906 9.59404 1.71765 -1.09804 -0.106417 
390 1 1.000 2.45947 0.852853 9.5002 -0.185239 -0.0421336 -0.412773 
391 1 1.000 2.49409 0.16994 10.2679 0.343729 -0.259086 0.903643 
392 1 1.000 1.69671 0.852125 10.2636 0.0858772 0.415055 -0.0382759 
393 1 1.000 3.22919 0.0953848 9.37606 0.733077 -0.54591 0.109261 
394 1 1.000 4.05283 0.853478 9.40637 0.239393 -0.821362 -0.114267 
395 1 1.000 4.01933 0.0137981 10.1658 -0.198329 1.06334 -0.464808 
396 1 1.000 3.27103 0.901129 10.1678 0.0727254 0.194177 0.0784623 
397 1 1.000 4.83214 0.113412 9.56139 0.513781 0.463073 -0.119949 
398 1 1.000 5.71708 0.970614 9.49532 0.0698055 1.0854 0.739123 
399 1 1.000 5.58616 0.0501895 10.2782 -0.230682 0.426934 -0.24571 
400 1 1.000 4.83922 0.906208 10.3136 -1.13885 -0.302997 0.404122 
401 1 1.000 0.186899 1.63116 9.52866 0.252615 0.426006 -0.457323 
402 1 1.000 0.894988 2.45266 9.55761 -0.257511 -1.08115 0.614855 
403 1 1.000 0.945271 1.71702 10.2499 -0.00573412 1.16612 -0.283187 
404 1 1.000 0.0842129 2.47102 10.2924 0.0513477 1.04055 0.990604 
405 1 1.000 1.65736 1.67936 9.47559 -0.0933119 -0.311917 1.10435 
406 1 1.000 2.37447 2.52531 9.47344 -0.0970928 0.0287364 -0.26614 
407 1 1.000 2.49464 1.641 10.2854 0.00948017 -0.2885 0.23187 
408 1 1.000 1.72374 2.44618 10.263 -0.323528 -0.599238 0.254002 
409 1 1.000 3.24204 1.67202 9.47744 -0.14007 0.61496 1.26403 
410 1 1.000 4.00222 2.42614 9.48022 0.408366 -0.651586 -0.860105 
411 1 1.000 4.06947 1.60589 10.269 -0.641986 -0.276758 0.0899686 
412 1 1.000 3.22897 2.4715 10.3617 0.646154 -0.573316 0.470715 
413 1 1.000 4.92633 1.64361 9.46344 -0.974649 0.508482 -0.396053 
414 1 1.000 5.69513 2.3514 9.482 1.4243 -0.0923548 -0.322714 
415 1 1.000 5.80408 1.68037 10.3622 -0.538584 0.193889 -0.426413 
416 1 1.000 4.85491 2.41206 10.2278 -0.582011 0.417142 -0.626693 
417 1 1.000 0.177053 3.21381 9.51254 -0.0232263 -0.222344 -1.31371 
418 1 1.000 0.900036 4.02204 9.41678 0.2342 0.87658 -1.30617 
419 1 1.000 0.893799 3.27535 10.3564 1.2737 -0.259552 -0.626933 
420 1 1.000 0.15397 4.0599 10.303 -0.228297 -0.159562 -0.278667 
421 1 1.000 1.63659 3.22126 9.42559 -0.0467136 0.204879 -0.547846 
422 1 1.000 2.49205 3.94877 9.49651 1.18683 0.658633 -0.50404 
423 1 1.000 2.53642 3.26017 10.3068 -0.0899321 0.128004 -0.622481 
424 1 1.000 1.66781 4.00211 10.2036 -1.24285 -0.274688 -1.19209 
425 1 1.000 3.22647 3.23231 9.40688 0.428964 0.619639 0.799873 
426 1 1.000 4.07615 4.08823 9.4553 0.892045 -0.0632974 -0.405298 
427 1 1.000 4.12382 3.22123 10.2566 1.15203 -0.643856 0.207242 
428 1 1.000 3.28552 4.00031 10.251 -0.145209 0.0787934 -0.98195 
429 1 1.000 4.77991 3.28497 9.35007 0.124923 0.636851 -0.0374318 
430 1 1.000 5.714 4.04435 9.48402 0.6341 -0.465687 0.578197 
431 1 1.000 5.63177 3.26606 10.2062 -0.285191 0.667717 0.217506 
432 1 1.000 4.85664 4.02894 10.304 -0.0651538 1.22074 0.320226 
433 1 1.000 0.100548 4.86461 9.47419 -1.15814 -0.130939 -0.0337972 
434 1 1.000 0.962827 5.65585 9.54371 -0.322877 0.98553 -0.317439 
435 1 1.000 0.924711 4.8919 10.2236 -0.0406482 -0.127751 -1.18006 
436 1 1.000 0.174163 5.67997 10.2747 -0.384725 0.12276 0.451905 
437 1 1.000 1.6947 4.83061 9.50845 -0.454288 -1.2587 -0.326995 
438 1 1.000 2.51886 5.52557 9.48416 0.0552414 0.289115 0.240852 
439 1 1.000 2.47294 4.86242 10.3093 -0.213045 -1.34196 -0.255653 
440 1 1.000 1.69204 5.64467 10.3286 -0.284449 -0.163584 0.264064 
441 1 1.000 3.19839 4.77719 9.42936 0.262349 -0.217023 -0.152431 
442 1 1.000 4.00574 5.58526 9.46491 0.916212 0.472465 1.07953 
443 1 1.000 3.97369 4.87338 10.323 -1.72174 -0.617403 1.03741 
444 1 1.000 3.20007 5.65361 10.2365 -1.07801 0.198762 1.00831 
445 1 1.000 4.93569 4.79641 9.45237 0.523764 0.0438461 -0.569802 
446 1 1.000 5.70461 5.60424 9.51682 0.624763 -0.93688 -0.426325 
447 1 1.000 5.67539 4.82516 10.2113 -1.01252 0.624289 0.225297 
448 1 1.000 4.79889 5.60561 10.2946 -0.373881 0.852613 0.20123 
449 1 1.000 0.101488 0.108374 11.0657 -0.518598 0.226007 0.132577 
450 1 1.000 0.840284 0.865471 11.0947 -0.299404 -0.170875 -0.0306881 
451 1 1.000 0.857192 0.168278 11.9342 -0.859459 0.513698 -0.16433 
452 1 1.000 0.0196251 0.890581 11.8145 0.130971 -0.258955 0.897148 
453 1 1.000 1.65475 0.150807 11.0716 1.43013 -0.684196 -0.307755 
454 1 1.000 2.59749 0.832631 11.0349 -0.64082 -0.327918 -0.320217 
455 1 1.000 2.53891 0.0525398 11.8362 -1.01787 -0.117973 -0.339749 
456 1 1.000 1.73382 0.897429 11.8735 -0.766806 0.247526 0.742238 