ITEM: TIMESTEP
0
ITEM: NUMBER OF ATOMS
25
ITEM: BOX BOUNDS pp pp pp
0.0 5.976143
0.0 5.976143
-0.5 0.5
ITEM: ATOMS id type x y z vx vy vz
1 2 1.4105438 1.0563968 0.0 0.03121 0.0072226 0.0
7 1 0.2690978 1.6645054 0.0 -0.0184582 0.0249129 0.0
25 1 0.4886767 0.3459029 0.0 0.0041512 -6.8676524e-04 0.0
9 1 4.3556352 0.4958382 0.0 -0.0208647 -0.0041288 0.0
20 1 3.2160864 0.2434295 0.0 0.031805 -0.0224427 0.0
21 1 3.5864728 1.3839105 0.0 0.0207997 0.019265 0.0
2 2 2.5210424 1.0104373 0.0 0.0028641 -0.0098554 0.0
5 1 5.1475182 1.32882 0.0 -0.0064317 -0.0135605 0.0
13 1 4.5269695 2.1265876 0.0 -0.0020804 0.0342824 0.0
8 1 0.4282469 3.8264115 0.0 0.0074834 0.0010386 0.0
17 1 1.6543631 3.2211805 0.0 -0.012548 0.0066235 0.0
22 1 0.8420232 2.5306196 0.0 -0.0174727 0.0055436 0.0
14 1 3.4747098 2.622283 0.0 0.0038948 -0.0128712 0.0
12 1 2.4232195 2.5098958 0.0 -0.0332773 -0.0129416 0.0
10 1 2.5011468 3.6821783 0.0 0.0021116 0.0116506 0.0
16 1 3.9854506 3.6284065 0.0 -0.0086115 0.021007 0.0
23 1 5.2900443 2.8692978 0.0 -0.0066959 -0.0306373 0.0
6 1 5.9126702 5.1149077 0.0 0.0152698 -0.0013073 0.0
4 1 1.0021675 4.9264132 0.0 -0.028341 -0.0088836 0.0
11 1 1.9615742 4.5294109 0.0 0.034239 -8.3940783e-04 0.0
19 1 3.2340186 4.4470034 0.0 0.0091531 -0.0171649 0.0
18 1 1.975109 0.0781065 0.0 -0.0127283 0.0075565 0.0
15 1 3.9251404 5.3548012 0.0 3.3500555e-04 -0.0196894 0.0
24 1 5.3000703 5.8860874 0.0 -2.1894064e-04 0.0071615 0.0
3 1 4.9964328 3.8887396 0.0 0.0044121 0.0087447 0.0
